SystemName     aGNRP-13                                                                        
SystemLabel     aGNRP-13                                                                        
MPI.Nprocs.SIESTA        36     # default value
SpinPolarized              F     # default value
NonCollinearSpin              F     # default value
SpinOrbit              F     # default value
#:block? SpinPolarized              F
#:defined? SpinPolarized              F
#:block? NonCollinearSpin              F
#:defined? NonCollinearSpin              F
#:block? SpinOrbit              F
#:defined? SpinOrbit              F
Spin     none                                 # default value
TimeReversalSymmetry              T     # default value
DebugObjects.Node         0     # default value
DebugObjects              F     # default value
XML.Write              F     # default value
timer_report_threshold          0.000000000         # default value
UseParallelTimer              T     # default value
UseTreeTimer              F     # default value
alloc_report_level         0     # default value
alloc_report_threshold          0.000000000         # default value
xc.functional     GGA                                                                             
xc.authors     PBE                                                                             
MM.Cutoff          30.00000000     Bohr     # default value
MM.UnitsEnergy     eV     # default value
MM.UnitsDistance     Ang     # default value
WriteIonPlotFiles              F     # default value
Atom.Debug.KB.Generation              F     # default value
KB.New.Reference.Orbitals              F     # default value
user-basis              F     # default value
user-basis-netcdf              F     # default value
#:block? DFTU.proj              F
#:defined? DFTU.proj              F
#:block? LDAU.proj              F
#:defined? LDAU.proj              F
Number_of_species              2
%block Chemical_species_label
  1 6 C.gga
  2 1 H.gga
%endblock Chemical_species_label
ReparametrizePseudos              F     # default value
Restricted.Radial.Grid              T     # default value
Rmax.Radial.Grid          0.000000000         # default value
PAO.BasisSize     DZP                                                                             
PAO.BasisType     split          # default value
PAO.SoftDefault              F     # default value
PAO.SoftInnerRadius         0.9000000000         # default value
PAO.SoftPotential          40.00000000         # default value
PAO.SplitNorm         0.1500000000         # default value
PAO.SplitNormH         -1.000000000         # default value
LDAU.ProjectorGenerationMethod         2     # default value
DFTU.ProjectorGenerationMethod         2     # default value
LDAU.EnergyShift         0.5000000000E-01 Ry     # default value
DFTU.EnergyShift         0.5000000000E-01 Ry     # default value
LDAU.CutoffNorm         0.9000000000         # default value
DFTU.CutoffNorm         0.9000000000         # default value
PAO.SoftDefault              F     # default value
PAO.SoftInnerRadius         0.9000000000         # default value
PAO.SoftPotential          40.00000000         # default value
LDAU.ThresholdTol         0.1000000000E-01     # default value
DFTU.ThresholdTol         0.1000000000E-01     # default value
LDAU.PopTol         0.1000000000E-02     # default value
DFTU.PopTol         0.1000000000E-02     # default value
LDAU.PotentialShift              F     # default value
DFTU.PotentialShift              F     # default value
LDAU.FirstIteration              F     # default value
DFTU.FirstIteration              F     # default value
FilterCutoff          0.000000000     Ry     # default value
FilterTol          0.000000000     Ry     # default value
KB.Rmax          6.000000000     Bohr     # default value
PAO.EnergyShift         0.7349798845E-02         Ry
# above item originally: PAO.EnergyShift         0.1000000000     eV        
PAO.SplitTailNorm              F     # default value
PAO.FixSplitTable              F     # default value
PAO.NewSplitCode              F     # default value
PAO.Filter              F     # default value
PAO.Keep.Findp.Bug              F     # default value
PAO.Filter              F     # default value
PAO.Filter              F     # default value
PAO.Filter              F     # default value
PAO.OldStylePolorbs              T     # default value
PAO.SplitTailNorm              F     # default value
PAO.FixSplitTable              F     # default value
PAO.NewSplitCode              F     # default value
PAO.Filter              F     # default value
Vna.Filter              F     # default value
FilterCutoff          0.000000000     Ry     # default value
FilterTol          0.000000000     Ry     # default value
KB.Rmax          6.000000000     Bohr     # default value
PAO.EnergyShift         0.7349798845E-02         Ry
# above item originally: PAO.EnergyShift         0.1000000000     eV        
PAO.SplitTailNorm              F     # default value
PAO.FixSplitTable              F     # default value
PAO.NewSplitCode              F     # default value
PAO.Filter              F     # default value
PAO.Filter              F     # default value
PAO.OldStylePolorbs              T     # default value
PAO.SplitTailNorm              F     # default value
PAO.FixSplitTable              F     # default value
PAO.NewSplitCode              F     # default value
PAO.Filter              F     # default value
Vna.Filter              F     # default value
PAO.BasisType     split          # default value
Atom-Setup-Only              F     # default value
UseStructFile              F     # default value
MD.UseStructFile              F     # default value
LatticeConstant          1.889726878           Bohr
# above item originally: LatticeConstant          1.000000000     Ang       
#:block? LatticeParameters              F
#:block? LatticeVectors              T
%block LatticeVectors
  17.28000000 0.00000000 0.00000000
  0.000000000 40.0000000 0.00000000
  0.000000000 0.00000000 20.00000000
%endblock LatticeVectors
AtomicCoordinatesFormat     Ang                                                                             
NumberOfAtoms            104
ZM.UnitsLength     Bohr           # default value
ZM.UnitsAngle     rad            # default value
ZM.ForceTolLength         0.1555740000E-02 Ry/Bohr     # default value
ZM.ForceTolAngle         0.3565490000E-02 Ry/rad     # default value
ZM.MaxDisplLength         0.2000000000     Bohr     # default value
ZM.MaxDisplAngle         0.3000000000E-02 rad     # default value
ZM.CalcAllForces              F     # default value
%block AtomicCoordinatesAndAtomicSpecies
   0.01145911 14.98432492 10.00000000 1 # 1: C
   -0.00220783 17.48139156 10.00000000 1 # 2: C
   0.01055908 19.97752012 9.99999998 1 # 3: C
   0.75144726 13.77479868 10.00000000 1 # 4: C
   0.72208458 16.23388372 10.00000002 1 # 5: C
   0.72168242 18.72860392 10.00000000 1 # 6: C
   0.75036069 21.18729504 10.00000000 1 # 7: C
   2.20280731 11.18942136 10.00000000 1 # 8: C
   2.15585434 13.73042492 10.00000000 1 # 9: C
   2.16170790 16.22845640 10.00000000 1 # 10: C
   2.16157846 18.73351232 10.00000000 1 # 11: C
   2.15476568 21.23065260 10.00000000 1 # 12: C
   2.20146670 23.77070156 10.00000000 1 # 13: C
   2.89515666 9.97081692 10.00000002 1 # 14: C
   2.88419661 12.44600900 10.00000000 1 # 15: C
   2.88057918 14.98092208 10.00000000 1 # 16: C
   2.88444040 17.48118384 10.00000000 1 # 17: C
   2.88030702 19.98031464 10.00000000 1 # 18: C
   2.88320361 22.51461796 10.00000000 1 # 19: C
   2.89346807 24.98913716 9.99999998 1 # 20: C
   4.31315302 9.97179760 10.00000000 1 # 21: C
   4.32021018 12.44696320 10.00000000 1 # 22: C
   4.32032312 14.98175996 10.00000000 1 # 23: C
   4.31576089 17.48118044 9.99999998 1 # 24: C
   4.32007536 19.98045356 10.00000000 1 # 25: C
   4.31915900 22.51513328 10.00000000 1 # 26: C
   4.31128647 24.98978220 9.99999998 1 # 27: C
   5.00381283 11.19154144 10.00000000 1 # 28: C
   5.04649430 13.73195484 10.00000000 1 # 29: C
   5.03865754 16.22898232 9.99999998 1 # 30: C
   5.03878735 18.73343456 10.00000000 1 # 31: C
   5.04554865 21.23048680 10.00000000 1 # 32: C
   5.00274761 23.77054400 10.00000000 1 # 33: C
   6.45052772 13.77586124 10.00000000 1 # 34: C
   6.47906628 16.23428492 10.00000000 1 # 35: C
   6.47863504 18.72841076 10.00000000 1 # 36: C
   6.44967006 21.18666008 10.00000000 1 # 37: C
   7.19057292 14.98524828 10.00000000 1 # 38: C
   7.20305806 17.48142784 9.99999998 1 # 39: C
   7.18976301 19.97748692 10.00000000 1 # 40: C
   8.65144015 14.98431824 10.00000000 1 # 41: C
   8.63772692 17.48139360 10.00000000 1 # 42: C
   8.65050771 19.97749680 10.00000000 1 # 43: C
   9.39148824 13.77478948 10.00000000 1 # 44: C
   9.36211121 16.23389224 10.00000000 1 # 45: C
   9.36172768 18.72860048 10.00000000 1 # 46: C
   9.39035141 21.18729356 10.00000000 1 # 47: C
   10.84281569 11.18952320 10.00000000 1 # 48: C
   10.79588105 13.73041356 10.00000002 1 # 49: C
   10.80169304 16.22845024 10.00000000 1 # 50: C
   10.80161734 18.73352592 10.00000000 1 # 51: C
   10.79474987 21.23068588 10.00000000 1 # 52: C
   10.84148881 23.77067024 9.99999998 1 # 53: C
   11.53516922 9.97080120 10.00000000 1 # 54: C
   11.52422149 12.44599876 10.00000000 1 # 55: C
   11.52059005 14.98093116 10.00000002 1 # 56: C
   11.52449624 17.48117720 10.00000000 1 # 57: C
   11.52032299 19.98035368 10.00000000 1 # 58: C
   11.52321542 22.51464792 10.00000000 1 # 59: C
   11.53344181 24.98920484 9.99999998 1 # 60: C
   12.95314618 9.97187492 10.00000000 1 # 61: C
   12.96021368 12.44699840 10.00000000 1 # 62: C
   12.96032334 14.98178776 10.00000002 1 # 63: C
   12.95579265 17.48119924 10.00000000 1 # 64: C
   12.96008343 19.98048752 10.00000000 1 # 65: C
   12.95917450 22.51510984 10.00000000 1 # 66: C
   12.95125457 24.98973672 10.00000000 1 # 67: C
   13.64374705 11.19149956 10.00000000 1 # 68: C
   13.68645144 13.73198052 10.00000000 1 # 69: C
   13.67865033 16.22901576 10.00000000 1 # 70: C
   13.67875928 18.73345400 10.00000000 1 # 71: C
   13.68552660 21.23048476 10.00000000 1 # 72: C
   13.64266014 23.77060584 10.00000002 1 # 73: C
   15.09050791 13.77583864 10.00000000 1 # 74: C
   15.11907396 16.23429516 10.00000000 1 # 75: C
   15.11863965 18.72841340 9.99999998 1 # 76: C
   15.08967706 21.18667100 10.00000000 1 # 77: C
   15.83054150 14.98525780 10.00000000 1 # 78: C
   15.84304559 17.48141648 9.99999998 1 # 79: C
   15.82975063 19.97746912 9.99999998 1 # 80: C
   0.19996858 12.82095740 10.00000000 2 # 81: H
   0.19927515 22.14155968 10.00000000 2 # 82: H
   1.09719215 11.15726844 10.00000000 2 # 83: H
   1.09599737 23.80390708 10.00000000 2 # 84: H
   2.33202753 9.01657160 10.00000002 2 # 85: H
   2.33015918 25.94326412 10.00000000 2 # 86: H
   4.87574868 9.01739092 10.00000000 2 # 87: H
   4.87265416 25.94478456 9.99999998 2 # 88: H
   6.10937154 11.15981704 10.00000000 2 # 89: H
   6.10825624 23.80299876 10.00000000 2 # 90: H
   7.00250265 12.82206848 10.00000000 2 # 91: H
   7.00102882 22.14084156 10.00000000 2 # 92: H
   8.83994947 12.82096272 10.00000000 2 # 93: H
   8.83927723 22.14158364 10.00000002 2 # 94: H
   9.73724350 11.15727824 10.00000000 2 # 95: H
   9.73605051 23.80391268 9.99999998 2 # 96: H
   10.97208385 9.01663344 10.00000000 2 # 97: H
   10.97012324 25.94324100 9.99999998 2 # 98: H
   13.51575924 9.01742744 10.00000000 2 # 99: H
   13.51260790 25.94480444 10.00000000 2 # 100: H
   14.74930896 11.15986924 10.00000000 2 # 101: H
   14.74818315 23.80304536 10.00000000 2 # 102: H
   15.64248859 12.82205328 10.00000000 2 # 103: H
   15.64103904 22.14082424 10.00000000 2 # 104: H
%endblock AtomicCoordinatesAndAtomicSpecies
MD.UseSaveXV              F     # default value
MD.UseSaveZM              F     # default value
WriteCoorInitial              T     # default value
MD.TypeOfRun     none     # default value
MD.TypeOfRun     none     # default value
MaxBondDistance          6.000000000     Bohr     # default value
Output-Structure-Only              F     # default value
WriteCoorXmol              F     # default value
#:physical? MaxWalltime              F
MaxWalltime         0.1797693135+309     # default value
#:physical? MaxWalltime.Slack              F
MaxWalltime.Slack          5.000000000         # default value
HSetupOnly              F     # default value
LongOutput              F     # default value
WriteDenchar              T
WriteMullikenPop         0     # default value
WriteOrbMom              F     # default value
WriteHirshfeldPop              F     # default value
WriteVoronoiPop              F     # default value
PartialChargesAtEveryGeometry              F     # default value
PartialChargesAtEveryScfStep              F     # default value
Compat.Matel.NRTAB              F     # default value
MeshCutoff          200.0000000             Ry
# above item originally: MeshCutoff          200.0000000     Ry        
NetCharge          0.000000000         # default value
MinSCFIterations         0     # default value
MaxSCFIterations            200
SCF.MustConverge              T     # default value
#:block? TS.MixH              F
#:defined? TS.MixH              F
#:block? MixHamiltonian              F
#:defined? MixHamiltonian              F
#:block? MixCharge              F
#:defined? MixCharge              F
TS.MixH              T     # default value
MixHamiltonian              T     # default value
MixCharge              F     # default value
SCF.Mix     Hamiltonian     # default value
Compat-pre-v4-DM-H              F     # default value
SCF.MixAfterConvergence              F     # default value
SCF.Recompute-H-After-Scf              F     # default value
DM.NumberPulay              5
DM.NumberBroyden         0     # default value
DM.FIRE.Mixing              F     # default value
DM.MixSCF1              T     # default value
SCF.Mix.First              T     # default value
SCF.Mix.First.Force              F     # default value
DM.PulayOnFile              F     # default value
DM.MixingWeight         0.1000000000    
DM.OccupancyTolerance         0.1000000000E-11     # default value
DM.NumberKick         0     # default value
DM.KickMixingWeight         0.5000000000         # default value
DM.RequireHarrisConvergence              F     # default value
SCF.Harris.Converge              F     # default value
DM.HarrisTolerance         0.7349806700E-05 Ry     # default value
SCF.Harris.Tolerance         0.7349806700E-05 Ry     # default value
SCF.DM.Converge              T     # default value
DM.Tolerance         0.1000000000E-03
SCF.DM.Tolerance         0.1000000000E-03     # default value
SCF.EDM.Converge              F     # default value
SCF.EDM.Tolerance         0.7349806700E-04 Ry     # default value
SCF.H.Converge              T     # default value
SCF.H.Tolerance         0.7349806700E-04 Ry     # default value
DM.RequireEnergyConvergence              F     # default value
SCF.FreeE.Converge              F     # default value
DM.EnergyTolerance         0.7349806700E-05 Ry     # default value
SCF.FreeE.Tolerance         0.7349806700E-05 Ry     # default value
MonitorForcesInSCF              F     # default value
SCF.MonitorForces              F     # default value
UseSaveData              F     # default value
DM.UseSaveDM              T
NeglNonOverlapInt              F     # default value
SolutionMethod     diagon                                                                          
ElectronicTemperature         0.1900000000E-02 Ry     # default value
FixSpin              F     # default value
Spin.Fix              F     # default value
ON.MaxNumIter      1000     # default value
ON.etol         0.1000000000E-07     # default value
ON.eta          0.000000000     Ry     # default value
ON.eta_alpha          0.000000000     Ry     # default value
ON.eta_beta          0.000000000     Ry     # default value
On.RcLWF          9.500000000     Bohr     # default value
ON.UseSaveLWF              F     # default value
ON.functional     kim     # default value
ON.ChemicalPotentialUse              F     # default value
ON.ChemicalPotential              F     # default value
ON.ChemicalPotentialRc          9.500000000     Bohr     # default value
ON.ChemicalPotentialTemperature         0.5000000000E-01 Ry     # default value
ON.ChemicalPotentialOrder       100     # default value
MD.VariableCell              F     # default value
compat-pre-v4-dynamics              F     # default value
MD.TypeOfRun     cg     # default value
MD.UseSaveCG              F     # default value
Optim.Broyden              F     # default value
#:block? Optim.Broyden              F
#:defined? Optim.Broyden              F
MD.NumCGsteps         0     # default value
MD.Steps         0     # default value
MD.MaxCGDispl         0.2000000000     Bohr     # default value
MD.MaxDispl         0.2000000000     Bohr     # default value
MD.MaxForceTol         0.1555740000E-02 Ry/Bohr     # default value
MD.MaxStressTol         0.6797730000E-04 Ry/Bohr**3     # default value
GeometryMustConverge              F     # default value
MD.InitialTimeStep         1     # default value
#:block? MD.Steps              F
#:defined? MD.Steps              F
MD.FinalTimeStep         1     # default value
MD.LengthTimeStep          1.000000000     fs     # default value
MD.Quench              F     # default value
MD.FireQuench              F     # default value
MD.InitialTemperature          0.000000000     K     # default value
MD.TargetTemperature          0.000000000     K     # default value
MD.TargetPressure          0.000000000     Ry/Bohr**3     # default value
MD.NoseMass          100.0000000     Ry*fs**2     # default value
MD.ParrinelloRahmanMass          100.0000000     Ry*fs**2     # default value
MD.AnnealOption     TemperatureAndPressure     # default value
MD.TauRelax          100.0000000     fs     # default value
MD.BulkModulus         0.6797730000E-02 Ry/Bohr**3     # default value
MD.FCDispl         0.4000000000E-01 Bohr     # default value
MD.FCfirst         1     # default value
MD.FClast       104     # default value
UseSpatialDecomposition              F     # default value
UseDomainDecomposition              F     # default value
SCF.Mix.Spin     all     # default value
Mixer.Debug              F     # default value
Mixer.Debug.MPI              F     # default value
DM.NumberPulay              5
DM.NumberBroyden         0     # default value
DM.MixingWeight         0.1000000000    
DM.NumberKick         0     # default value
DM.KickMixingWeight         0.5000000000         # default value
SCF.LinearMixingAfterPulay              F     # default value
SCF.MixingWeightAfterPulay         0.1000000000         # default value
SCF.Mixer.History         5     # default value
SCF.Mixer.Weight         0.1000000000         # default value
SCF.Mixer.Kick         0     # default value
SCF.Mixer.Kick.Weight         0.5000000000         # default value
SCF.Mixer.Restart         0     # default value
SCF.Mixer.Restart.Save         1     # default value
SCF.Mixer.Method     Pulay     # default value
SCF.Mixer.Variant     original     # default value
SCF.Mixer.Linear.After        -1     # default value
SCF.Mixer.Linear.After.Weight         0.1000000000         # default value
#:block? ChargeGeometries              F
#:defined? ChargeGeometries              F
#:block? ChargeGeometries              F
#:defined? ChargeGeometries              F
Harris_functional              F     # default value
ForceAuxCell              F     # default value
#:block? Optim.Broyden.History.Steps              F
#:defined? Optim.Broyden.History.Steps              F
#:block? Optim.Broyden.Cycle.On.Maxit              F
#:defined? Optim.Broyden.Cycle.On.Maxit              F
#:block? Optim.Broyden.Variable.Weight              F
#:defined? Optim.Broyden.Variable.Weight              F
#:block? Optim.Broyden.Debug              F
#:defined? Optim.Broyden.Debug              F
#:block? Optim.Broyden.Initial.Inverse.Jacobian              F
#:defined? Optim.Broyden.Initial.Inverse.Jacobian              F
WriteKpoints              F     # default value
WriteForces              F     # default value
WriteDM              T     # default value
WriteDM.End.Of.Cycle              T     # default value
WriteH              F     # default value
WriteH.End.Of.Cycle              F     # default value
WriteDM.NetCDF              F     # default value
WriteDM.History.NetCDF              F     # default value
WriteDMHS.NetCDF              F     # default value
WriteDMHS.History.NetCDF              F     # default value
SCF.Read.Charge.NetCDF              F     # default value
SCF.Read.Deformation.Charge.NetCDF              F     # default value
Write.TSHS.History              F     # default value
SaveInitialChargeDensity              F     # default value
AnalyzeChargeDensityOnly              F     # default value
UseNewDiagk              F     # default value
Diag.WFS.Cache     none     # default value
WriteBands              F     # default value
WriteKbands              F     # default value
WriteEigenvalues              F     # default value
WriteCoorStep              F     # default value
WriteMDhistory              F     # default value
WriteMDXmol              T     # default value
WriteOrbitalIndex              T     # default value
Write.Graphviz     none     # default value
WriteCoorStep              F     # default value
SaveHS              T
ReInitialiseDM              T     # default value
DM.AllowReuse              T     # default value
DM.AllowExtrapolation              T
DM.History.Depth         1     # default value
DM.NormalizationTolerance         0.1000000000E-04     # default value
DM.NormalizeDuringSCF              T     # default value
MullikenInSCF              F     # default value
SpinInSCF              F     # default value
WarningMinimumAtomicDistance          1.000000000     Bohr     # default value
BornCharge              F     # default value
ChangeKgridInMD              F     # default value
MD.RelaxCellOnly              F     # default value
MD.RemoveIntraMolecularPressure              F     # default value
COOP.Write              T
SaveRho              T
SaveDeltaRho              F     # default value
SaveRhoXC              F     # default value
SaveElectrostaticPotential              F     # default value
SaveNeutralAtomPotential              F     # default value
SaveTotalPotential              F     # default value
SaveIonicCharge              F     # default value
SaveBaderCharge              F     # default value
SaveTotalCharge              F     # default value
Siesta2Wannier90.WriteMmn              F     # default value
Siesta2Wannier90.WriteUnk              F     # default value
Siesta2Wannier90.WriteAmn              F     # default value
Siesta2Wannier90.WriteEig              F     # default value
#:block? Siesta2Wannier90.NumberOfBandsUp              F
#:defined? Siesta2Wannier90.NumberOfBandsUp              F
#:block? Siesta2Wannier90.NumberOfBandsDown              F
#:defined? Siesta2Wannier90.NumberOfBandsDown              F
#:block? Siesta2Wannier90.NumberOfBands              F
#:defined? Siesta2Wannier90.NumberOfBands              F
Siesta2Wannier90.NumberOfBandsUp         0     # default value
Siesta2Wannier90.NumberOfBandsDown         0     # default value
Siesta2Wannier90.NumberOfBands         0     # default value
CDF.Save              F     # default value
CDF.Compress         0     # default value
CDF.MPI              F     # default value
CDF.Read.Parallel              F     # default value
DM.AllowReuse              T     # default value
DM.AllowExtrapolation              T
DM.AllowExtrapolation              T
NumberOfEigenStates      1160     # default value
RcSpatial          0.000000000     Bohr     # default value
ProcessorGridX         1     # default value
ProcessorGridY         1     # default value
ProcessorGridZ         1     # default value
processorY         4     # default value
blocksize        24     # default value
#:block? SpinSpiral              F
#:defined? SpinSpiral              F
TimeReversalSymmetryForKpoints              T     # default value
%block kgrid_Monkhorst_Pack
   40   0   0   0.0   # 40 puntos en dirección x (sin desplazamiento del origen)
    0   1   0   0.0   # no periódico en y
    0   0   1   0.0   # no periódico en z
%endblock kgrid_Monkhorst_Pack
Diag.ParallelOverK              F     # default value
Diag.ProcessorY         6     # default value
Diag.BlockSize        24     # default value
Diag.Use2D              T     # default value
Diag.UpperLower     lower     # default value
Diag.DivideAndConquer              T     # default value
Diag.ELPA              F     # default value
Diag.NoExpert              F     # default value
Diag.Algorithm     Divide-and-Conquer     # default value
Diag.ELPA.UseGPU              F     # default value
Diag.AbsTol         0.1000000000E-15     # default value
Diag.OrFac         0.1000000000E-05     # default value
Diag.Memory          1.000000000         # default value
#:block? ProjectedDensityOfStates              T
#:block? SpinSpiral              F
#:defined? SpinSpiral              F
TimeReversalSymmetryForKpoints              T     # default value
%block PDOS.kgrid_Monkhorst_Pack
   60  0  0  0.0
    0  1  0  0.0
    0  0  1  0.0
%endblock PDOS.kgrid_Monkhorst_Pack
#:block? BandLines              T
#:defined? BandLines              T
#:block? BandPoints              F
#:defined? BandPoints              F
BandLinesScale     ReciprocalLatticeVectors                                                        
%block BandLines
 1    0.5      0.5      0.0   X        # Punto X (0.5,0.5,0) (sin desplazamiento)
 100  0.0      0.0      0.0   \Gamma   # 100 puntos: X → Γ
 100  0.5      0.5      0.0   X        # 100 puntos: Γ → X
%endblock BandLines
#:block? BandLines              T
#:defined? BandLines              T
#:block? BandPoints              F
#:defined? BandPoints              F
BandLinesScale     ReciprocalLatticeVectors                                                        
%block BandLines
 1    0.5      0.5      0.0   X        # Punto X (0.5,0.5,0) (sin desplazamiento)
 100  0.0      0.0      0.0   \Gamma   # 100 puntos: X → Γ
 100  0.5      0.5      0.0   X        # 100 puntos: Γ → X
%endblock BandLines
LongOutput              F     # default value
WriteWaveFunctions              T
#:block-line-count? MetaForce (iirrr)   0
#:block? TS.BufferAtomsLeft              F
#:defined? TS.BufferAtomsLeft              F
#:block? TS.BufferAtomsRight              F
#:defined? TS.BufferAtomsRight              F
#:list? TS.Atoms.Buffer              F
TS.HS.Save              T     # label by itself
TS.DE.Save              F     # default value
TS.onlyS              F     # default value
TS.S.Save              F     # default value
AtomicCoordinatesFormat     Ang                                                                             
AtomCoorFormatOut     Ang                        # default value
LatticeConstant          1.889726878           Bohr
# above item originally: LatticeConstant          1.000000000     Ang       
debug-folding              F     # default value
Sonly              F     # default value
File.DM.Init     aGNRP-13.DM     # default value
Sonly              F     # default value
Debug.DHSCF              F     # default value
MeshSubDivisions         2     # default value
#:list? Mesh.Sizes              F
XC.Use.BSC.CellXC              F     # default value
PROCS_PER_NODE         4     # default value
PROCS_PER_NODE         4     # default value
DirectPhi              F     # default value
SimulateDoping              F     # default value
Slab.DipoleCorrection     none     # default value
Read-H-from-file              F     # default value
SingleExcitation              F     # default value
OccupationFunction     FD     # default value
OccupationFunction     FD     # default value
compute-forces              T     # default value
#:list? Grid.CellSampling              F
Read-H-from-file              F     # default value
WriteCoorXmol              F     # default value
WriteCoorCerius              F     # default value
WFS.BandMin            100
WFS.BandMax            800
WriteWaveDebug              F     # default value
WFS.EnergyMin        -0.1797693135+309 Ry     # default value
WFS.EnergyMax         0.1797693135+309 Ry     # default value
WFS.Write.For.Bands              T
WFS.BandMin            100
WFS.BandMax            800
WriteWaveDebug              F     # default value
WFS.EnergyMin        -0.1797693135+309 Ry     # default value
WFS.EnergyMax         0.1797693135+309 Ry     # default value
%block ProjectedDensityOfStates
   -70.00  10.00  0.050  5000  eV    # Rango amplio con alta resolución
%endblock ProjectedDensityOfStates
BasisPressure         0.2000000000     GPa     # default value
OpticalCalculation              F     # default value
