SystemName     aGNRP-13                                                                        
SystemLabel     aGNRP-13                                                                        
SpinPolarized              F     # default value
NonCollinearSpin              F     # default value
SpinOrbit              F     # default value
#:block? SpinPolarized              F
#:defined? SpinPolarized              F
#:block? NonCollinearSpin              F
#:defined? NonCollinearSpin              F
#:block? SpinOrbit              F
#:defined? SpinOrbit              F
Spin     none                                 # default value
TimeReversalSymmetry              T     # default value
DebugObjects.Node         0     # default value
DebugObjects              F     # default value
XML.Write              F     # default value
timer_report_threshold          0.000000000         # default value
UseParallelTimer              T     # default value
UseTreeTimer              F     # default value
timing-split-scf-steps              F     # default value
use-walltime              F     # default value
timer-use-inbalance              F     # default value
alloc_report_level         0     # default value
alloc_report_threshold          0.000000000         # default value
xc.functional     GGA                                                                             
xc.authors     PBE                                                                             
#:block? XC.hybrid              F
#:defined? XC.hybrid              F
#:block? XC.cocktail              F
#:defined? XC.cocktail              F
MM.Cutoff          30.00000000     Bohr     # default value
MM.UnitsEnergy     eV     # default value
MM.UnitsDistance     Ang     # default value
Atom.Debug              F     # default value
WriteIonPlotFiles              F     # default value
Atom.Debug.KB.Generation              F     # default value
KB.New.Reference.Orbitals              F     # default value
user-basis              F     # default value
user-basis-netcdf              F     # default value
#:block? DFTU.proj              F
#:defined? DFTU.proj              F
#:block? LDAU.proj              F
#:defined? LDAU.proj              F
Number_of_species              2
%block Chemical_species_label
  1 6 C.gga
  2 1 H.gga
%endblock Chemical_species_label
ReparametrizePseudos              T     # default value
NewAParameter         0.1000000000E-02     # default value
NewBParameter         0.1000000000E-01     # default value
NewGridRmax          0.000000000         # default value
Restricted.Radial.Grid              T     # default value
Rmax.Radial.Grid          50.00000000         # default value
PAO.BasisSize     DZP                                                                             
PAO.BasisType     split          # default value
PAO.SoftDefault              T     # default value
PAO.SoftInnerRadius         0.9000000000         # default value
PAO.SoftPotential          40.00000000         # default value
PAO.SplitNorm         0.1500000000         # default value
PAO.SplitNormH         -1.000000000         # default value
PAO.Polarization.NonPerturbative              F     # default value
PAO.NonPerturbative.Polarization.Orbitals              F     # default value
PAO.Polarization.NonPerturbative.Fallback              T     # default value
LDAU.ProjectorGenerationMethod         2     # default value
DFTU.ProjectorGenerationMethod         2     # default value
LDAU.EnergyShift         0.5000000000E-01 Ry     # default value
DFTU.EnergyShift         0.5000000000E-01 Ry     # default value
LDAU.CutoffNorm         0.9000000000         # default value
DFTU.CutoffNorm         0.9000000000         # default value
PAO.SoftDefault              T     # default value
PAO.SoftInnerRadius         0.9000000000         # default value
PAO.SoftPotential          40.00000000         # default value
LDAU.ThresholdTol         0.1000000000E-01     # default value
DFTU.ThresholdTol         0.1000000000E-01     # default value
LDAU.PopTol         0.1000000000E-02     # default value
DFTU.PopTol         0.1000000000E-02     # default value
LDAU.PotentialShift              F     # default value
DFTU.PotentialShift              F     # default value
LDAU.FirstIteration              F     # default value
DFTU.FirstIteration              F     # default value
FilterCutoff          0.000000000     Ry     # default value
FilterTol          0.000000000     Ry     # default value
PAO.SplitValence.Legacy              F     # default value
PAO.SplitTailNorm              T     # default value
spin-orbit-strength          1.000000000         # default value
Use.PSML.KB.Projectors              F     # default value
Use.PSML.Vlocal              F     # default value
PSML.KB.Projectors              F     # default value
PSML.Vlocal              F     # default value
vlocal-from-chlocal              F     # default value
Rmax.PS.Check          49.93037601     Bohr     # default value
Vlocal.Fit.3derivs              F     # default value
chlocal-use-charge-cutoff-for-vlocal-fit              F     # default value
use-charge-cutoff-for-large-core              F     # default value
Atom.Ignore.Ghosts              F     # default value
KB.Rmax          0.000000000     Bohr     # default value
PAO.EnergyShift         0.7349864435E-02         Ry
# above item originally: PAO.EnergyShift         0.1000000000     eV        
PAO.Filter              F     # default value
PAO.Filter              F     # default value
PAO.Filter              F     # default value
PAO.Filter              F     # default value
PAO.OldStylePolorbs              F     # default value
PAO.Filter              F     # default value
Vna.Filter              F     # default value
FilterCutoff          0.000000000     Ry     # default value
FilterTol          0.000000000     Ry     # default value
PAO.SplitValence.Legacy              F     # default value
PAO.SplitTailNorm              T     # default value
spin-orbit-strength          1.000000000         # default value
Use.PSML.KB.Projectors              F     # default value
Use.PSML.Vlocal              F     # default value
PSML.KB.Projectors              F     # default value
PSML.Vlocal              F     # default value
vlocal-from-chlocal              F     # default value
Rmax.PS.Check          49.93037601     Bohr     # default value
Vlocal.Fit.3derivs              F     # default value
chlocal-use-charge-cutoff-for-vlocal-fit              F     # default value
use-charge-cutoff-for-large-core              F     # default value
Atom.Ignore.Ghosts              F     # default value
KB.Rmax          0.000000000     Bohr     # default value
PAO.EnergyShift         0.7349864435E-02         Ry
# above item originally: PAO.EnergyShift         0.1000000000     eV        
PAO.Filter              F     # default value
PAO.Filter              F     # default value
PAO.OldStylePolorbs              F     # default value
PAO.Filter              F     # default value
Vna.Filter              F     # default value
PAO.BasisType     split          # default value
Debug.Elec.Corr              F     # default value
Atom-Setup-Only              F     # default value
UseStructFile              F     # default value
MD.UseStructFile              F     # default value
#:block? LatticeParameters              F
%block LatticeVectors
LatticeConstant          1.889726125           Bohr
# above item originally: LatticeConstant          1.000000000     Ang       
  17.28000000 0.00000000 0.00000000
  0.000000000 40.0000000 0.00000000
  0.000000000 0.00000000 20.00000000
%endblock LatticeVectors
AtomicCoordinatesFormat     Ang                                                                             
NumberOfAtoms            104
#:block? AtomicCoordinatesOrigin              F
#:defined? AtomicCoordinatesOrigin              F
ZM.UnitsLength     Bohr           # default value
ZM.UnitsAngle     rad            # default value
ZM.ForceTolLength         0.1555740000E-02 Ry/Bohr     # default value
ZM.ForceTolAngle         0.3565490000E-02 Ry/rad     # default value
ZM.MaxDisplLength         0.2000000000     Bohr     # default value
ZM.MaxDisplAngle         0.3000000000E-02 rad     # default value
ZM.CalcAllForces              F     # default value
%block AtomicCoordinatesAndAtomicSpecies
   0.01145911 14.98432492 10.00000000  # 1: C
